title="cns2d-results"
variables="x","y","rho","rhou","rhov","rhoE"
zone i=  139 j=  150
datapacking=block
varlocation=([3,4,5,6]=cellcentered)
        -2.5000000000E-01        -2.2607962703E-01        -2.0444399104E-01        -1.8487444455E-01        -1.6717321979E-01        -1.5116143003E-01        -1.3667726181E-01        -1.2357433964E-01        -1.1172024678E-01        -1.0099518700E-01        -9.1290773971E-02        -8.2508935920E-02        -7.4560924511E-02        -6.7366417977E-02        -6.0852709388E-02        -5.4953971891E-02        -4.9610593463E-02        -4.4768574484E-02        -4.0378982017E-02        -3.6397455303E-02        -3.2783757450E-02        -2.9501368807E-02        -2.6517117899E-02        -2.3800846201E-02        -2.1325103355E-02        -1.9064869764E-02        -1.6997303746E-02        -1.5101510694E-02        -1.3358331923E-02        -1.1750151052E-02        -1.0260715974E-02        -8.8749746141E-03        -7.5789228157E-03        -6.3594628154E-03        -5.2042708786E-03        -4.1016727567E-03        -3.0405257091E-03        -2.0101058950E-03        -1.0000000000E-03         0.0000000000E+00         1.0000000000E-03         2.0020786804E-03         3.0083190427E-03         4.0208127389E-03         5.0416644199E-03         6.0729961101E-03         7.1169516185E-03         8.1757009951E-03         9.2514450415E-03         1.0346419886E-02         1.1462901631E-02         1.2603211085E-02         1.3769718587E-02         1.4964848935E-02         1.6191086421E-02         1.7450980002E-02         1.8747148594E-02         2.0082286516E-02         2.1459169095E-02         2.2880658429E-02         2.4349709341E-02         2.5869375517E-02         2.7442815857E-02         2.9073301043E-02         3.0764220330E-02         3.2519088601E-02         3.4341553665E-02         3.6235403845E-02         3.8204575850E-02         4.0253162960E-02         4.2385423533E-02         4.4605789856E-02         4.6918877363E-02         4.9329494222E-02         5.1842651336E-02         5.4463572755E-02         5.7197706538E-02         6.0050736075E-02         6.3028591902E-02         6.6137464030E-02         6.9383814812E-02         7.2774392372E-02         7.6316244638E-02         8.0016733990E-02         8.3883552561E-02         8.7924738233E-02         9.2148691338E-02         9.6564192126E-02         1.0118041901E-01         1.0600696765E-01         1.1105387091E-01         1.1633161967E-01         1.2185118470E-01         1.2762403940E-01         1.3366218369E-01         1.3997816895E-01         1.4658512410E-01         1.5349678287E-01         1.6072751240E-01         1.6829234308E-01         1.7620699975E-01         1.8448793447E-01         1.9315236064E-01         2.0221828886E-01         2.1170456427E-01         2.2163090582E-01         2.3201794720E-01         2.4288727975E-01         2.5426149734E-01         2.6616424333E-01         2.7862025973E-01         2.9165543861E-01         3.0529687594E-01         3.1957292793E-01         3.3451326990E-01         3.5014895807E-01         3.6651249403E-01         3.8363789234E-01         4.0156075124E-01         4.2031832661E-01         4.3994960947E-01         4.6049540698E-01         4.8199842729E-01         5.0450336829E-01         5.2805701059E-01         5.5270831466E-01         5.7850852270E-01         6.0551126508E-01         6.3377267190E-01         6.6335148957E-01         6.9430920300E-01         7.2671016340E-01         7.6062172200E-01         7.9611437010E-01         8.3326188557E-01         8.7214148622E-01         9.1283399032E-01         9.5542398459E-01         1.0000000000E+00 
        -2.5000000000E-01        -2.2607962703E-01        -2.0444399104E-01        -1.8487444455E-01        -1.6717321979E-01        -1.5116143003E-01        -1.3667726181E-01        -1.2357433964E-01        -1.1172024678E-01        -1.0099518700E-01        -9.1290773971E-02        -8.2508935920E-02        -7.4560924511E-02        -6.7366417977E-02        -6.0852709388E-02        -5.4953971891E-02        -4.9610593463E-02        -4.4768574484E-02        -4.0378982017E-02        -3.6397455303E-02        -3.2783757450E-02        -2.9501368807E-02        -2.6517117899E-02        -2.3800846201E-02        -2.1325103355E-02        -1.9064869764E-02        -1.6997303746E-02        -1.5101510694E-02        -1.3358331923E-02        -1.1750151052E-02        -1.0260715974E-02        -8.8749746141E-03        -7.5789228157E-03        -6.3594628154E-03        -5.2042708786E-03        -4.1016727567E-03        -3.0405257091E-03        -2.0101058950E-03        -1.0000000000E-03         0.0000000000E+00         1.0000000000E-03         2.0020786804E-03         3.0083190427E-03         4.0208127389E-03         5.0416644199E-03         6.0729961101E-03         7.1169516185E-03         8.1757009951E-03         9.2514450415E-03         1.0346419886E-02         1.1462901631E-02         1.2603211085E-02         1.3769718587E-02         1.4964848935E-02         1.6191086421E-02         1.7450980002E-02         1.8747148594E-02         2.0082286516E-02         2.1459169095E-02         2.2880658429E-02         2.4349709341E-02         2.5869375517E-02         2.7442815857E-02         2.9073301043E-02         3.0764220330E-02         3.2519088601E-02         3.4341553665E-02         3.6235403845E-02         3.8204575850E-02         4.0253162960E-02         4.2385423533E-02         4.4605789856E-02         4.6918877363E-02         4.9329494222E-02         5.1842651336E-02         5.4463572755E-02         5.7197706538E-02         6.0050736075E-02         6.3028591902E-02         6.6137464030E-02         6.9383814812E-02         7.2774392372E-02         7.6316244638E-02         8.0016733990E-02         8.3883552561E-02         8.7924738233E-02         9.2148691338E-02         9.6564192126E-02         1.0118041901E-01         1.0600696765E-01         1.1105387091E-01         1.1633161967E-01         1.2185118470E-01         1.2762403940E-01         1.3366218369E-01         1.3997816895E-01         1.4658512410E-01         1.5349678287E-01         1.6072751240E-01         1.6829234308E-01         1.7620699975E-01         1.8448793447E-01         1.9315236064E-01         2.0221828886E-01         2.1170456427E-01         2.2163090582E-01         2.3201794720E-01         2.4288727975E-01         2.5426149734E-01         2.6616424333E-01         2.7862025973E-01         2.9165543861E-01         3.0529687594E-01         3.1957292793E-01         3.3451326990E-01         3.5014895807E-01         3.6651249403E-01         3.8363789234E-01         4.0156075124E-01         4.2031832661E-01         4.3994960947E-01         4.6049540698E-01         4.8199842729E-01         5.0450336829E-01         5.2805701059E-01         5.5270831466E-01         5.7850852270E-01         6.0551126508E-01         6.3377267190E-01         6.6335148957E-01         6.9430920300E-01         7.2671016340E-01         7.6062172200E-01         7.9611437010E-01         8.3326188557E-01         8.7214148622E-01         9.1283399032E-01         9.5542398459E-01         1.0000000000E+00 
        -2.5000000000E-01        -2.2607962703E-01        -2.0444399104E-01        -1.8487444455E-01        -1.6717321979E-01        -1.5116143003E-01        -1.3667726181E-01        -1.2357433964E-01        -1.1172024678E-01        -1.0099518700E-01        -9.1290773971E-02        -8.2508935920E-02        -7.4560924511E-02        -6.7366417977E-02        -6.0852709388E-02        -5.4953971891E-02        -4.9610593463E-02        -4.4768574484E-02        -4.0378982017E-02        -3.6397455303E-02        -3.2783757450E-02        -2.9501368807E-02        -2.6517117899E-02        -2.3800846201E-02        -2.1325103355E-02        -1.9064869764E-02        -1.6997303746E-02        -1.5101510694E-02        -1.3358331923E-02        -1.1750151052E-02        -1.0260715974E-02        -8.8749746141E-03        -7.5789228157E-03        -6.3594628154E-03        -5.2042708786E-03        -4.1016727567E-03        -3.0405257091E-03        -2.0101058950E-03        -1.0000000000E-03         0.0000000000E+00         1.0000000000E-03         2.0020786804E-03         3.0083190427E-03         4.0208127389E-03         5.0416644199E-03         6.0729961101E-03         7.1169516185E-03         8.1757009951E-03         9.2514450415E-03         1.0346419886E-02         1.1462901631E-02         1.2603211085E-02         1.3769718587E-02         1.4964848935E-02         1.6191086421E-02         1.7450980002E-02         1.8747148594E-02         2.0082286516E-02         2.1459169095E-02         2.2880658429E-02         2.4349709341E-02         2.5869375517E-02         2.7442815857E-02         2.9073301043E-02         3.0764220330E-02         3.2519088601E-02         3.4341553665E-02         3.6235403845E-02         3.8204575850E-02         4.0253162960E-02         4.2385423533E-02         4.4605789856E-02         4.6918877363E-02         4.9329494222E-02         5.1842651336E-02         5.4463572755E-02         5.7197706538E-02         6.0050736075E-02         6.3028591902E-02         6.6137464030E-02         6.9383814812E-02         7.2774392372E-02         7.6316244638E-02         8.0016733990E-02         8.3883552561E-02         8.7924738233E-02         9.2148691338E-02         9.6564192126E-02         1.0118041901E-01         1.0600696765E-01         1.1105387091E-01         1.1633161967E-01         1.2185118470E-01         1.2762403940E-01         1.3366218369E-01         1.3997816895E-01         1.4658512410E-01         1.5349678287E-01         1.6072751240E-01         1.6829234308E-01         1.7620699975E-01         1.8448793447E-01         1.9315236064E-01         2.0221828886E-01         2.1170456427E-01         2.2163090582E-01         2.3201794720E-01         2.4288727975E-01         2.5426149734E-01         2.6616424333E-01         2.7862025973E-01         2.9165543861E-01         3.0529687594E-01         3.1957292793E-01         3.3451326990E-01         3.5014895807E-01         3.6651249403E-01         3.8363789234E-01         4.0156075124E-01         4.2031832661E-01         4.3994960947E-01         4.6049540698E-01         4.8199842729E-01         5.0450336829E-01         5.2805701059E-01         5.5270831466E-01         5.7850852270E-01         6.0551126508E-01         6.3377267190E-01         6.6335148957E-01         6.9430920300E-01         7.2671016340E-01         7.6062172200E-01         7.9611437010E-01         8.3326188557E-01         8.7214148622E-01         9.1283399032E-01         9.5542398459E-01         1.0000000000E+00 
        -2.5000000000E-01        -2.2607962703E-01        -2.0444399104E-01        -1.8487444455E-01        -1.6717321979E-01        -1.5116143003E-01        -1.3667726181E-01        -1.2357433964E-01        -1.1172024678E-01        -1.0099518700E-01        -9.1290773971E-02        -8.2508935920E-02        -7.4560924511E-02        -6.7366417977E-02        -6.0852709388E-02        -5.4953971891E-02        -4.9610593463E-02        -4.4768574484E-02        -4.0378982017E-02        -3.6397455303E-02        -3.2783757450E-02        -2.9501368807E-02        -2.6517117899E-02        -2.3800846201E-02        -2.1325103355E-02        -1.9064869764E-02        -1.6997303746E-02        -1.5101510694E-02        -1.3358331923E-02        -1.1750151052E-02        -1.0260715974E-02        -8.8749746141E-03        -7.5789228157E-03        -6.3594628154E-03        -5.2042708786E-03        -4.1016727567E-03        -3.0405257091E-03        -2.0101058950E-03        -1.0000000000E-03         0.0000000000E+00         1.0000000000E-03         2.0020786804E-03         3.0083190427E-03         4.0208127389E-03         5.0416644199E-03         6.0729961101E-03         7.1169516185E-03         8.1757009951E-03         9.2514450415E-03         1.0346419886E-02         1.1462901631E-02         1.2603211085E-02         1.3769718587E-02         1.4964848935E-02         1.6191086421E-02         1.7450980002E-02         1.8747148594E-02         2.0082286516E-02         2.1459169095E-02         2.2880658429E-02         2.4349709341E-02         2.5869375517E-02         2.7442815857E-02         2.9073301043E-02         3.0764220330E-02         3.2519088601E-02         3.4341553665E-02         3.6235403845E-02         3.8204575850E-02         4.0253162960E-02         4.2385423533E-02         4.4605789856E-02         4.6918877363E-02         4.9329494222E-02         5.1842651336E-02         5.4463572755E-02         5.7197706538E-02         6.0050736075E-02         6.3028591902E-02         6.6137464030E-02         6.9383814812E-02         7.2774392372E-02         7.6316244638E-02         8.0016733990E-02         8.3883552561E-02         8.7924738233E-02         9.2148691338E-02         9.6564192126E-02         1.0118041901E-01         1.0600696765E-01         1.1105387091E-01         1.1633161967E-01         1.2185118470E-01         1.2762403940E-01         1.3366218369E-01         1.3997816895E-01         1.4658512410E-01         1.5349678287E-01         1.6072751240E-01         1.6829234308E-01         1.7620699975E-01         1.8448793447E-01         1.9315236064E-01         2.0221828886E-01         2.1170456427E-01         2.2163090582E-01         2.3201794720E-01         2.4288727975E-01         2.5426149734E-01         2.6616424333E-01         2.7862025973E-01         2.9165543861E-01         3.0529687594E-01         3.1957292793E-01         3.3451326990E-01         3.5014895807E-01         3.6651249403E-01         3.8363789234E-01         4.0156075124E-01         4.2031832661E-01         4.3994960947E-01         4.6049540698E-01         4.8199842729E-01         5.0450336829E-01         5.2805701059E-01         5.5270831466E-01         5.7850852270E-01         6.0551126508E-01         6.3377267190E-01         6.6335148957E-01         6.9430920300E-01         7.2671016340E-01         7.6062172200E-01         7.9611437010E-01         8.3326188557E-01         8.7214148622E-01         9.1283399032E-01         9.5542398459E-01         1.0000000000E+00 
        -2.5000000000E-01        -2.2607962703E-01        -2.0444399104E-01        -1.8487444455E-01        -1.6717321979E-01        -1.5116143003E-01        -1.3667726181E-01        -1.2357433964E-01        -1.1172024678E-01        -1.0099518700E-01        -9.1290773971E-02        -8.2508935920E-02        -7.4560924511E-02        -6.7366417977E-02        -6.0852709388E-02        -5.4953971891E-02        -4.9610593463E-02        -4.4768574484E-02        -4.0378982017E-02        -3.6397455303E-02        -3.2783757450E-02        -2.9501368807E-02        -2.6517117899E-02        -2.3800846201E-02        -2.1325103355E-02        -1.9064869764E-02        -1.6997303746E-02        -1.5101510694E-02        -1.3358331923E-02        -1.1750151052E-02        -1.0260715974E-02        -8.8749746141E-03        -7.5789228157E-03        -6.3594628154E-03        -5.2042708786E-03        -4.1016727567E-03        -3.0405257091E-03        -2.0101058950E-03        -1.0000000000E-03         0.0000000000E+00         1.0000000000E-03         2.0020786804E-03         3.0083190427E-03         4.0208127389E-03         5.0416644199E-03         6.0729961101E-03         7.1169516185E-03         8.1757009951E-03         9.2514450415E-03         1.0346419886E-02         1.1462901631E-02         1.2603211085E-02         1.3769718587E-02         1.4964848935E-02         1.6191086421E-02         1.7450980002E-02         1.8747148594E-02         2.0082286516E-02         2.1459169095E-02         2.2880658429E-02         2.4349709341E-02         2.5869375517E-02         2.7442815857E-02         2.9073301043E-02         3.0764220330E-02         3.2519088601E-02         3.4341553665E-02         3.6235403845E-02         3.8204575850E-02         4.0253162960E-02         4.2385423533E-02         4.4605789856E-02         4.6918877363E-02         4.9329494222E-02         5.1842651336E-02         5.4463572755E-02         5.7197706538E-02         6.0050736075E-02         6.3028591902E-02         6.6137464030E-02         6.9383814812E-02         7.2774392372E-02         7.6316244638E-02         8.0016733990E-02         8.3883552561E-02         8.7924738233E-02         9.2148691338E-02         9.6564192126E-02         1.0118041901E-01         1.0600696765E-01         1.1105387091E-01         1.1633161967E-01         1.2185118470E-01         1.2762403940E-01         1.3366218369E-01         1.3997816895E-01         1.4658512410E-01         1.5349678287E-01         1.6072751240E-01         1.6829234308E-01         1.7620699975E-01         1.8448793447E-01         1.9315236064E-01         2.0221828886E-01         2.1170456427E-01         2.2163090582E-01         2.3201794720E-01         2.4288727975E-01         2.5426149734E-01         2.6616424333E-01         2.7862025973E-01         2.9165543861E-01         3.0529687594E-01         3.1957292793E-01         3.3451326990E-01         3.5014895807E-01         3.6651249403E-01         3.8363789234E-01         4.0156075124E-01         4.2031832661E-01         4.3994960947E-01         4.6049540698E-01         4.8199842729E-01         5.0450336829E-01         5.2805701059E-01         5.5270831466E-01         5.7850852270E-01         6.0551126508E-01         6.3377267190E-01         6.6335148957E-01         6.9430920300E-01         7.2671016340E-01         7.6062172200E-01         7.9611437010E-01         8.3326188557E-01         8.7214148622E-01         9.1283399032E-01         9.5542398459E-01         1.0000000000E+00 
        -2.5000000000E-01        -2.2607962703E-01        -2.0444399104E-01        -1.8487444455E-01        -1.6717321979E-01        -1.5116143003E-01        -1.3667726181E-01        -1.2357433964E-01        -1.1172024678E-01        -1.0099518700E-01        -9.1290773971E-02        -8.2508935920E-02        -7.4560924511E-02        -6.7366417977E-02        -6.0852709388E-02        -5.4953971891E-02        -4.9610593463E-02        -4.4768574484E-02        -4.0378982017E-02        -3.6397455303E-02        -3.2783757450E-02        -2.9501368807E-02        -2.6517117899E-02        -2.3800846201E-02        -2.1325103355E-02        -1.9064869764E-02        -1.6997303746E-02        -1.5101510694E-02        -1.3358331923E-02        -1.1750151052E-02        -1.0260715974E-02        -8.8749746141E-03        -7.5789228157E-03        -6.3594628154E-03        -5.2042708786E-03        -4.1016727567E-03        -3.0405257091E-03        -2.0101058950E-03        -1.0000000000E-03         0.0000000000E+00         1.0000000000E-03         2.0020786804E-03         3.0083190427E-03         4.0208127389E-03         5.0416644199E-03         6.0729961101E-03         7.1169516185E-03         8.1757009951E-03         9.2514450415E-03         1.0346419886E-02         1.1462901631E-02         1.2603211085E-02         1.3769718587E-02         1.4964848935E-02         1.6191086421E-02         1.7450980002E-02         1.8747148594E-02         2.0082286516E-02         2.1459169095E-02         2.2880658429E-02         2.4349709341E-02         2.5869375517E-02         2.7442815857E-02         2.9073301043E-02         3.0764220330E-02         3.2519088601E-02         3.4341553665E-02         3.6235403845E-02         3.8204575850E-02         4.0253162960E-02         4.2385423533E-02         4.4605789856E-02         4.6918877363E-02         4.9329494222E-02         5.1842651336E-02         5.4463572755E-02         5.7197706538E-02         6.0050736075E-02         6.3028591902E-02         6.6137464030E-02         6.9383814812E-02         7.2774392372E-02         7.6316244638E-02         8.0016733990E-02         8.3883552561E-02         8.7924738233E-02         9.2148691338E-02         9.6564192126E-02         1.0118041901E-01         1.0600696765E-01         1.1105387091E-01         1.1633161967E-01         1.2185118470E-01         1.2762403940E-01         1.3366218369E-01         1.3997816895E-01         1.4658512410E-01         1.5349678287E-01         1.6072751240E-01         1.6829234308E-01         1.7620699975E-01         1.8448793447E-01         1.9315236064E-01         2.0221828886E-01         2.1170456427E-01         2.2163090582E-01         2.3201794720E-01         2.4288727975E-01         2.5426149734E-01         2.6616424333E-01         2.7862025973E-01         2.9165543861E-01         3.0529687594E-01         3.1957292793E-01         3.3451326990E-01         3.5014895807E-01         3.6651249403E-01         3.8363789234E-01         4.0156075124E-01         4.2031832661E-01         4.3994960947E-01         4.6049540698E-01         4.8199842729E-01         5.0450336829E-01         5.2805701059E-01         5.5270831466E-01         5.7850852270E-01         6.0551126508E-01         6.3377267190E-01         6.6335148957E-01         6.9430920300E-01         7.2671016340E-01         7.6062172200E-01         7.9611437010E-01         8.3326188557E-01         8.7214148622E-01         9.1283399032E-01         9.5542398459E-01         1.0000000000E+00 
        -2.5000000000E-01        -2.2607962703E-01        -2.0444399104E-01        -1.8487444455E-01        -1.6717321979E-01        -1.5116143003E-01        -1.3667726181E-01        -1.2357433964E-01        -1.1172024678E-01        -1.0099518700E-01        -9.1290773971E-02        -8.2508935920E-02        -7.4560924511E-02        -6.7366417977E-02        -6.0852709388E-02        -5.4953971891E-02        -4.9610593463E-02        -4.4768574484E-02        -4.0378982017E-02        -3.6397455303E-02        -3.2783757450E-02        -2.9501368807E-02        -2.6517117899E-02        -2.3800846201E-02        -2.1325103355E-02        -1.9064869764E-02        -1.6997303746E-02        -1.5101510694E-02        -1.3358331923E-02        -1.1750151052E-02        -1.0260715974E-02        -8.8749746141E-03        -7.5789228157E-03        -6.3594628154E-03        -5.2042708786E-03        -4.1016727567E-03        -3.0405257091E-03        -2.0101058950E-03        -1.0000000000E-03         0.0000000000E+00         1.0000000000E-03         2.0020786804E-03         3.0083190427E-03         4.0208127389E-03         5.0416644199E-03         6.0729961101E-03         7.1169516185E-03         8.1757009951E-03         9.2514450415E-03         1.0346419886E-02         1.1462901631E-02         1.2603211085E-02         1.3769718587E-02         1.4964848935E-02         1.6191086421E-02         1.7450980002E-02         1.8747148594E-02         2.0082286516E-02         2.1459169095E-02         2.2880658429E-02         2.4349709341E-02         2.5869375517E-02         2.7442815857E-02         2.9073301043E-02         3.0764220330E-02         3.2519088601E-02         3.4341553665E-02         3.6235403845E-02         3.8204575850E-02         4.0253162960E-02         4.2385423533E-02         4.4605789856E-02         4.6918877363E-02         4.9329494222E-02         5.1842651336E-02         5.4463572755E-02         5.7197706538E-02         6.0050736075E-02         6.3028591902E-02         6.6137464030E-02         6.9383814812E-02         7.2774392372E-02         7.6316244638E-02         8.0016733990E-02         8.3883552561E-02         8.7924738233E-02         9.2148691338E-02         9.6564192126E-02         1.0118041901E-01         1.0600696765E-01         1.1105387091E-01         1.1633161967E-01         1.2185118470E-01         1.2762403940E-01         1.3366218369E-01         1.3997816895E-01         1.4658512410E-01         1.5349678287E-01         1.6072751240E-01         1.6829234308E-01         1.7620699975E-01         1.8448793447E-01         1.9315236064E-01         2.0221828886E-01         2.1170456427E-01         2.2163090582E-01         2.3201794720E-01         2.4288727975E-01         2.5426149734E-01         2.6616424333E-01         2.7862025973E-01         2.9165543861E-01         3.0529687594E-01         3.1957292793E-01         3.3451326990E-01         3.5014895807E-01         3.6651249403E-01         3.8363789234E-01         4.0156075124E-01         4.2031832661E-01         4.3994960947E-01         4.6049540698E-01         4.8199842729E-01         5.0450336829E-01         5.2805701059E-01         5.5270831466E-01         5.7850852270E-01         6.0551126508E-01         6.3377267190E-01         6.6335148957E-01         6.9430920300E-01         7.2671016340E-01         7.6062172200E-01         7.9611437010E-01         8.3326188557E-01         8.7214148622E-01         9.1283399032E-01         9.5542398459E-01         1.0000000000E+00 
        -2.5000000000E-01        -2.2607962703E-01        -2.0444399104E-01        -1.8487444455E-01        -1.6717321979E-01        -1.5116143003E-01        -1.3667726181E-01        -1.2357433964E-01        -1.1172024678E-01        -1.0099518700E-01        -9.1290773971E-02        -8.2508935920E-02        -7.4560924511E-02        -6.7366417977E-02        -6.0852709388E-02        -5.4953971891E-02        -4.9610593463E-02        -4.4768574484E-02        -4.0378982017E-02        -3.6397455303E-02        -3.2783757450E-02        -2.9501368807E-02        -2.6517117899E-02        -2.3800846201E-02        -2.1325103355E-02        -1.9064869764E-02        -1.6997303746E-02        -1.5101510694E-02        -1.3358331923E-02        -1.1750151052E-02        -1.0260715974E-02        -8.8749746141E-03        -7.5789228157E-03        -6.3594628154E-03        -5.2042708786E-03        -4.1016727567E-03        -3.0405257091E-03        -2.0101058950E-03        -1.0000000000E-03         0.0000000000E+00         1.0000000000E-03         2.0020786804E-03         3.0083190427E-03         4.0208127389E-03         5.0416644199E-03         6.0729961101E-03         7.1169516185E-03         8.1757009951E-03         9.2514450415E-03         1.0346419886E-02         1.1462901631E-02         1.2603211085E-02         1.3769718587E-02         1.4964848935E-02         1.6191086421E-02         1.7450980002E-02         1.8747148594E-02         2.0082286516E-02         2.1459169095E-02         2.2880658429E-02         2.4349709341E-02         2.5869375517E-02         2.7442815857E-02         2.9073301043E-02         3.0764220330E-02         3.2519088601E-02         3.4341553665E-02         3.6235403845E-02         3.8204575850E-02         4.0253162960E-02         4.2385423533E-02         4.4605789856E-02         4.6918877363E-02         4.9329494222E-02         5.1842651336E-02         5.4463572755E-02         5.7197706538E-02         6.0050736075E-02         6.3028591902E-02         6.6137464030E-02         6.9383814812E-02         7.2774392372E-02         7.6316244638E-02         8.0016733990E-02         8.3883552561E-02         8.7924738233E-02         9.2148691338E-02         9.6564192126E-02         1.0118041901E-01         1.0600696765E-01         1.1105387091E-01         1.1633161967E-01         1.2185118470E-01         1.2762403940E-01         1.3366218369E-01         1.3997816895E-01         1.4658512410E-01         1.5349678287E-01         1.6072751240E-01         1.6829234308E-01         1.7620699975E-01         1.8448793447E-01         1.9315236064E-01         2.0221828886E-01         2.1170456427E-01         2.2163090582E-01         2.3201794720E-01         2.4288727975E-01         2.5426149734E-01         2.6616424333E-01         2.7862025973E-01         2.9165543861E-01         3.0529687594E-01         3.1957292793E-01         3.3451326990E-01         3.5014895807E-01         3.6651249403E-01         3.8363789234E-01         4.0156075124E-01         4.2031832661E-01         4.3994960947E-01         4.6049540698E-01         4.8199842729E-01         5.0450336829E-01         5.2805701059E-01         5.5270831466E-01         5.7850852270E-01         6.0551126508E-01         6.3377267190E-01         6.6335148957E-01         6.9430920300E-01         7.2671016340E-01         7.6062172200E-01         7.9611437010E-01         8.3326188557E-01         8.7214148622E-01         9.1283399032E-01         9.5542398459E-01         1.0000000000E+00 